HfO2                                    
            1
     5.147944    0.000000    0.000000
     0.000000    5.198598    0.000000
    -0.893993    0.000000    5.253917
   Hf   O 
     4     8
Direct configuration=     1
   0.71519835  0.55227205  0.29574402
   0.27005902  0.03604674  0.20456732
   0.26641497  0.45863170  0.70036505
   0.74490991  0.95830766  0.79876928
   0.55261598  0.25055834  0.02974213
   0.45306835  0.74532913  0.47730790
   0.46115638  0.75416756  0.98046144
   0.55197101  0.23673944  0.53441364
   0.95196240  0.70035928  0.61241154
   0.05275256  0.18773062  0.88246639
   0.06349404  0.30480898  0.37462711
   0.95110678  0.76164908  0.11475345
Direct configuration=     2
   0.71564646  0.55277222  0.29573462
   0.26997278  0.03633918  0.20431749
   0.26729959  0.45855908  0.70134451
   0.74379757  0.95784837  0.79876536
   0.55470000  0.24961993  0.02926503
   0.45188269  0.74052425  0.47498705
   0.46138685  0.75889048  0.97946927
   0.55090479  0.23959092  0.53344181
   0.94966041  0.69798785  0.61072772
   0.05341663  0.18590211  0.88121216
   0.06228452  0.30582814  0.37485756
   0.95239522  0.76009038  0.11423220
Direct configuration=     3
   0.71610511  0.55319897  0.29568160
   0.26992173  0.03663594  0.20409951
   0.26823957  0.45846869  0.70235899
   0.74259229  0.95735929  0.79873762
   0.55651098  0.24882398  0.02886789
   0.45052914  0.73597558  0.47277935
   0.46147759  0.76341569  0.97836985
   0.54970706  0.24244462  0.53234715
   0.94735526  0.69581442  0.60943371
   0.05441254  0.18436034  0.87975715
   0.06091178  0.30664403  0.37498476
   0.95413917  0.75934860  0.11366829
Direct configuration=     4
   0.71657283  0.55354240  0.29557981
   0.26990289  0.03693623  0.20391604
   0.26922044  0.45836136  0.70339266
   0.74131201  0.95684882  0.79868404
   0.55800381  0.24823988  0.02854758
   0.44896801  0.73188864  0.47074524
   0.46142201  0.76758932  0.97717350
   0.54841042  0.24513373  0.53117476
   0.94512865  0.69392473  0.60863829
   0.05571818  0.18311378  0.87814318
   0.05944145  0.30719376  0.37500362
   0.95628355  0.75945431  0.11303070
Direct configuration=     5
   0.71704942  0.55379639  0.29542524
   0.26991231  0.03724005  0.20376848
   0.27022770  0.45823798  0.70443075
   0.73997632  0.95632652  0.79860318
   0.55915240  0.24793149  0.02829791
   0.44717782  0.72843886  0.46892790
   0.46122474  0.77126853  0.97589985
   0.54705228  0.24750946  0.52996881
   0.94305205  0.69238385  0.60841980
   0.05728819  0.18215656  0.87641039
   0.05793301  0.30743545  0.37491307
   0.95873762  0.76039424  0.11231118
Direct configuration=     6
   0.71753585  0.55395873  0.29521582
   0.26994552  0.03754829  0.20365721
   0.27124765  0.45809942  0.70546037
   0.73860517  0.95580235  0.79849400
   0.55994879  0.24795269  0.02811025
   0.44516106  0.72575913  0.46735067
   0.46089849  0.77433057  0.97457496
   0.54567220  0.24945170  0.52876988
   0.94117916  0.69122990  0.60881825
   0.05906032  0.18147201  0.87459478
   0.05643554  0.30735167  0.37471587
   0.96138355  0.76211436  0.11152363
Direct configuration=     7
   0.71803384  0.55403076  0.29495193
   0.26999817  0.03786257  0.20358188
   0.27226818  0.45794660  0.70647090
   0.73721744  0.95528624  0.79835571
   0.56040134  0.24834591  0.02797412
   0.44294612  0.72393729  0.46601674
   0.46046305  0.77667582  0.97323034
   0.54430993  0.25087202  0.52761298
   0.93954179  0.69047256  0.60983274
   0.06096127  0.18103552  0.87272767
   0.05498453  0.30694902  0.37441714
   0.96408480  0.76452667  0.11070046
Direct configuration=     8
   0.71854530  0.55401668  0.29463666
   0.27006641  0.03818508  0.20354162
   0.27327875  0.45778060  0.70745379
   0.73583051  0.95478768  0.79818759
   0.56053071  0.24913885  0.02787834
   0.44058806  0.72301375  0.46491204
   0.45994365  0.77823167  0.97190231
   0.54300384  0.25171680  0.52652693
   0.93814934  0.69009363  0.61142119
   0.06291270  0.18081858  0.87083642
   0.05360147  0.30625732  0.37402340
   0.96669462  0.76751710  0.10988837
Direct configuration=     9
   0.71907183  0.55392275  0.29427572
   0.27014723  0.03851839  0.20353523
   0.27427042  0.45760265  0.70840212
   0.73445985  0.95431558  0.79798903
   0.56036657  0.25034280  0.02781131
   0.43816432  0.72298507  0.46401076
   0.45936935  0.77895462  0.97063026
   0.54178961  0.25196617  0.52553502
   0.93699180  0.69005018  0.61350579
   0.06483633  0.18079100  0.86894553
   0.05229549  0.30532602  0.37354181
   0.96906345  0.77095310  0.10914212
Direct configuration=    10
   0.71961424  0.55375655  0.29387687
   0.27023860  0.03886519  0.20356127
   0.27523555  0.45741428  0.70931014
   0.73311887  0.95387806  0.79775955
   0.55994429  0.25195055  0.02776140
   0.43576803  0.72380803  0.46328223
   0.45877165  0.77883226  0.96945469
   0.54069883  0.25163243  0.52465594
   0.93604532  0.69027972  0.61598095
   0.06665792  0.18092214  0.86707796
   0.05106652  0.30421978  0.37298000
   0.97104697  0.77469146  0.10851901
Direct configuration=    11
   0.72017242  0.55352653  0.29344927
   0.27033950  0.03922809  0.20361806
   0.27616775  0.45721737  0.71017281
   0.73181885  0.95348225  0.79749891
   0.55930271  0.25393638  0.02771706
   0.43349952  0.72540530  0.46269604
   0.45818340  0.77788333  0.96841514
   0.53975734  0.25075664  0.52390429
   0.93527723  0.69070541  0.61872350
   0.06831015  0.18118146  0.86525561
   0.04990795  0.30301363  0.37234565
   0.97251215  0.77858411  0.10807529
Direct configuration=    12
   0.72074525  0.55324158  0.29300267
   0.27044962  0.03960930  0.20370367
   0.27706159  0.45701410  0.71098564
   0.73056890  0.95313409  0.79720730
   0.55848143  0.25625465  0.02766735
   0.43145721  0.72767113  0.46222743
   0.45763686  0.77615802  0.96754765
   0.53898371  0.24940520  0.52329107
   0.93465294  0.69124262  0.62160304
   0.06973523  0.18153854  0.86350001
   0.04881081  0.30178714  0.37164671
   0.97334595  0.78248666  0.10786189
Direct configuration=    13
   0.72133069  0.55291077  0.29254664
   0.27056904  0.04001042  0.20381580
   0.27791258  0.45680689  0.71174454
   0.72937589  0.95283799  0.79688538
   0.55751874  0.25884053  0.02760238
   0.42973001  0.73047845  0.46185992
   0.45716190  0.77373620  0.96688243
   0.53838815  0.24766449  0.52282375
   0.93414060  0.69180532  0.62449257
   0.07088684  0.18196266  0.86183226
   0.04776697  0.30061860  0.37089129
   0.97346328  0.78626806  0.10792226
Direct configuration=    14
   0.72192598  0.55254317  0.29208997
   0.27069774  0.04043215  0.20395173
   0.27871696  0.45659817  0.71244585
   0.72824449  0.95259662  0.79653439
   0.55644967  0.26161172  0.02751378
   0.42839111  0.73368669  0.46158624
   0.45678381  0.77072417  0.96644173
   0.53797194  0.24563498  0.52250604
   0.93371394  0.69231243  0.62727772
   0.07173148  0.18242266  0.86027269
   0.04677203  0.29957959  0.37008759
   0.97281405  0.78981921  0.10829102
Direct configuration=    15
   0.72252793  0.55214775  0.29164038
   0.27083511  0.04087413  0.20410834
   0.27947168  0.45639036  0.71308641
   0.72717738  0.95241078  0.79615607
   0.55530480  0.26447187  0.02739512
   0.42749414  0.73714917  0.46140774
   0.45652098  0.76724944  0.96623847
   0.53772724  0.24342497  0.52233747
   0.93335369  0.69269310  0.62986317
   0.07224922  0.18288731  0.85884056
   0.04582743  0.29873033  0.36924375
   0.97138778  0.79305744  0.10899354
Direct configuration=    16
   0.72313314  0.55173325  0.29120428
   0.27097968  0.04133495  0.20428209
   0.28017428  0.45618562  0.71366370
   0.72617553  0.95227936  0.79575267
   0.55410932  0.26731512  0.02724203
   0.42707140  0.74072047  0.46133258
   0.45638307  0.76345429  0.96627519
   0.53763756  0.24114471  0.52231279
   0.93304734  0.69289060  0.63217681
   0.07243337  0.18332585  0.85755377
   0.04494166  0.29811627  0.36836758
   0.96921567  0.79592951  0.11004583
Direct configuration=    17
   0.72373821  0.55130801  0.29078693
   0.27112888  0.04181219  0.20446924
   0.28082277  0.45598580  0.71417594
   0.72523859  0.95219947  0.79532679
   0.55288262  0.27003058  0.02705244
   0.42713385  0.74426312  0.46137321
   0.45636970  0.75948891  0.96654387
   0.53767904  0.23890080  0.52242164
   0.93278852  0.69286507  0.63417151
   0.07228981  0.18370879  0.85642836
   0.04413073  0.29776574  0.36746646
   0.96636866  0.79841411  0.11145375
Direct configuration=    18
   0.72433978  0.55087971  0.29039247
   0.27127923  0.04230262  0.20466603
   0.28141557  0.45579226  0.71462212
   0.72436528  0.95216658  0.79488129
   0.55163883  0.27250704  0.02682658
   0.42767248  0.74765386  0.46154388
   0.45646995  0.75550426  0.96702669
   0.53782244  0.23679102  0.52264872
   0.93257554  0.69259411  0.63582561
   0.07183567  0.18400918  0.85547764
   0.04341738  0.29768951  0.36654719
   0.96295172  0.80052092  0.11321238
Direct configuration=    19
   0.72493465  0.55045508  0.29002421
   0.27142660  0.04280247  0.20486895
   0.28195152  0.45560587  0.71500211
   0.72355366  0.95217494  0.79441914
   0.55038719  0.27463868  0.02656686
   0.42866102  0.75078939  0.46185747
   0.45666299  0.75164348  0.96769730
   0.53803498  0.23490025  0.52297459
   0.93241001  0.69207236  0.63714146
   0.07109764  0.18420406  0.85471136
   0.04282979  0.29788177  0.36561624
   0.95909566  0.80228691  0.11530459
Direct configuration=    20
   0.72551968  0.55003967  0.28968473
   0.27156662  0.04330780  0.20507497
   0.28242979  0.45542706  0.71531661
   0.72280146  0.95221793  0.79394332
   0.54913328  0.27633022  0.02627784
   0.43005911  0.75358830  0.46232326
   0.45691901  0.74803435  0.96852224
   0.53828254  0.23329797  0.52337700
   0.93229550  0.69130940  0.63814234
   0.07010989  0.18427559  0.85413501
   0.04239951  0.29832276  0.36467989
   0.95494774  0.80377037  0.11770065
Direct configuration=    21
   0.72609176  0.54963755  0.28937613
   0.27169518  0.04381473  0.20528175
   0.28284999  0.45525586  0.71556717
   0.72210622  0.95228860  0.79345674
   0.54788036  0.27750257  0.02596622
   0.43181563  0.75599225  0.46294528
   0.45720131  0.74478396  0.96946292
   0.53853211  0.23203627  0.52383256
   0.93223660  0.69032705  0.63886804
   0.06891207  0.18421211  0.85374931
   0.04215919  0.29898184  0.36374470
   0.95066143  0.80504512  0.12035802
Direct configuration=    22
   0.72664774  0.54925113  0.28910011
   0.27180883  0.04431965  0.20548770
   0.28321212  0.45509202  0.71575608
   0.72146533  0.95237998  0.79296211
   0.54663061  0.27809715  0.02564042
   0.43387221  0.75796519  0.46372156
   0.45746880  0.74197538  0.97047812
   0.53875403  0.23114943  0.52431824
   0.93223832  0.68915569  0.63936996
   0.06754710  0.18400846  0.85355009
   0.04214001  0.29982163  0.36281769
   0.94638740  0.80619469  0.12322317
Direct configuration=    23
   0.72718441  0.54888105  0.28885800
   0.27190498  0.04481929  0.20569200
   0.28351658  0.45493507  0.71588630
   0.72087612  0.95248551  0.79246191
   0.54538649  0.27807875  0.02531032
   0.43616652  0.75949211  0.46464431
   0.45767905  0.73966532  0.97152591
   0.53892381  0.23065411  0.52481273
   0.93230567  0.68783057  0.63970608
   0.06605922  0.18366608  0.85352826
   0.04236914  0.30080234  0.36190645
   0.94226563  0.80730663  0.12623440
Direct configuration=    24
   0.72769859  0.54852632  0.28865083
   0.27198203  0.04531072  0.20589445
   0.28376419  0.45478444  0.71596133
   0.72033586  0.95259929  0.79195843
   0.54415187  0.27743732  0.02498670
   0.43863515  0.76057674  0.46570048
   0.45779149  0.73788321  0.97256561
   0.53902359  0.23055042  0.52529750
   0.93244341  0.68638835  0.63993584
   0.06449235  0.18319266  0.85367026
   0.04286726  0.30188595  0.36101933
   0.93841958  0.80846735  0.12932493
Direct configuration=    25
   0.72818722  0.54818463  0.28847929
   0.27203927  0.04579125  0.20609537
   0.28395601  0.45463956  0.71598509
   0.71984178  0.95271626  0.79145377
   0.54293266  0.27618762  0.02468078
   0.44121556  0.76123846  0.46687303
   0.45776975  0.73663217  0.97355970
   0.53904282  0.23082361  0.52575722
   0.93265605  0.68486430  0.64011737
   0.06288890  0.18260147  0.85395836
   0.04364710  0.30303949  0.36016509
   0.93495412  0.80975733  0.13242596
Direct configuration=    26
   0.72864760  0.54785276  0.28834366
   0.27207676  0.04625834  0.20629541
   0.28409335  0.45449995  0.71596181
   0.71939118  0.95283232  0.79094991
   0.54173773  0.27436859  0.02440333
   0.44384833  0.76150903  0.46814143
   0.45758491  0.73589096  0.97447597
   0.53897916  0.23144603  0.52617998
   0.93294716  0.68329059  0.64030299
   0.06128889  0.18191080  0.85437132
   0.04471129  0.30423816  0.35935321
   0.93195010  0.81124449  0.13547140
Direct configuration=    27
   0.72907764  0.54752715  0.28824375
   0.27209517  0.04670947  0.20649536
   0.28417766  0.45436522  0.71589589
   0.71898139  0.95294431  0.79044879
   0.54057928  0.27204097  0.02416376
   0.44647806  0.76142897  0.46948231
   0.45721742  0.73561777  0.97528870
   0.53883867  0.23237918  0.52655709
   0.93331882  0.68169493  0.64053706
   0.05972929  0.18114302  0.85488487
   0.04605117  0.30546709  0.35859381
   0.92946308  0.81298018  0.13840174
Direct configuration=    28
   0.72947609  0.54720446  0.28817882
   0.27209559  0.04714202  0.20669603
   0.28421049  0.45423512  0.71579190
   0.71860990  0.95304993  0.78995236
   0.53947311  0.26928402  0.02396927
   0.44905416  0.76104475  0.47087032
   0.45665865  0.73575444  0.97597928
   0.53863571  0.23357602  0.52688255
   0.93377103  0.68010025  0.64085445
   0.05824394  0.18032394  0.85547216
   0.04764614  0.30672231  0.35789733
   0.92752139  0.81499383  0.14116790
Direct configuration=    29
   0.72984271  0.54688208  0.28814758
   0.27207938  0.04755323  0.20689814
   0.28419345  0.45410953  0.71565444
   0.71827433  0.95314772  0.78946265
   0.53843884  0.26619142  0.02382399
   0.45153188  0.76040631  0.47227912
   0.45591168  0.73623063  0.97653659
   0.53839247  0.23498309  0.52715249
   0.93430087  0.67852496  0.64127968
   0.05686312  0.17948213  0.85610422
   0.04946372  0.30801061  0.35727400
   0.92612599  0.81728970  0.14373341
Direct configuration=    30
   0.73017838  0.54655844  0.28814826
   0.27204803  0.04794016  0.20710231
   0.28412817  0.45398844  0.71548813
   0.71797255  0.95323685  0.78898180
   0.53749983  0.26286754  0.02372864
   0.45387222  0.75956521  0.47368178
   0.45499123  0.73696809  0.97695686
   0.53813810  0.23654257  0.52736454
   0.93490188  0.67698373  0.64182683
   0.05561326  0.17864779  0.85675074
   0.05146070  0.30934839  0.35673324
   0.92525142  0.81984611  0.14607521
Direct configuration=    31
   0.73048500  0.54623312  0.28817870
   0.27200308  0.04829980  0.20730902
   0.28401630  0.45387189  0.71529759
   0.71770261  0.95331704  0.78851203
   0.53668250  0.25942356  0.02368032
   0.45604211  0.75857304  0.47505117
   0.45392257  0.73788467  0.97724296
   0.53790727  0.23819425  0.52751723
   0.93556343  0.67548852  0.64250001
   0.05451692  0.17785173  0.85738075
   0.05358557  0.31075979  0.35628302
   0.92484839  0.82261655  0.14818292
Direct configuration=    32
   0.73076541  0.54590676  0.28823663
   0.27194611  0.04862923  0.20751873
   0.28385955  0.45375996  0.71508733
   0.71746283  0.95338845  0.78805556
   0.53601482  0.25597267  0.02367238
   0.45801500  0.75748017  0.47636077
   0.45273978  0.73889819  0.97740338
   0.53773828  0.23987761  0.52760970
   0.93627042  0.67404981  0.64329474
   0.05359240  0.17712397  0.85796357
   0.05578166  0.31227378  0.35592898
   0.92484733  0.82553366  0.15005687
Direct configuration=    33
   0.73102303  0.54558081  0.28831979
   0.27187870  0.04892585  0.20773190
   0.28365962  0.45365273  0.71486169
   0.71725173  0.95345158  0.78761451
   0.53552546  0.25262476  0.02369501
   0.45977142  0.75633473  0.47758551
   0.45148311  0.73993022  0.97745094
   0.53767096  0.24153375  0.52764133
   0.93700344  0.67267771  0.64419980
   0.05285366  0.17649213  0.85846999
   0.05799108  0.31392081  0.35567349
   0.92516394  0.82851496  0.15170604
Direct configuration=    34
   0.73126160  0.54525713  0.28842617
   0.27180239  0.04918764  0.20794906
   0.28341822  0.45355027  0.71462467
   0.71706803  0.95350719  0.78719069
   0.53524205  0.24948062  0.02373633
   0.46129870  0.75518189  0.47870238
   0.45019610  0.74090935  0.97740148
   0.53774433  0.24310739  0.52761167
   0.93773914  0.67138286  0.64519935
   0.05231045  0.17597999  0.85887341
   0.06015886  0.31572963  0.35551448
   0.92570573  0.83147043  0.15314563
Direct configuration=    35
   0.73148481  0.54493765  0.28855417
   0.27171871  0.04941326  0.20817081
   0.28313698  0.45345263  0.71437988
   0.71691064  0.95355623  0.78678561
   0.53518963  0.24662911  0.02378385
   0.46259032  0.75406332  0.47969105
   0.44892283  0.74177367  0.97727247
   0.53799427  0.24454847  0.52752023
   0.93845100  0.67017701  0.64627516
   0.05196873  0.17560615  0.85915086
   0.06223659  0.31772366  0.35544463
   0.92637835  0.83430994  0.15439455
Direct configuration=    36
   0.73169612  0.54462401  0.28870264
   0.27162920  0.04960223  0.20839787
   0.28281745  0.45335977  0.71413045
   0.71677868  0.95359973  0.78640031
   0.53538905  0.24414495  0.02382600
   0.46364449  0.75301727  0.48053396
   0.44770560  0.74247259  0.97708185
   0.53845142  0.24581327  0.52736642
   0.93911045  0.66907322  0.64740873
   0.05183128  0.17538297  0.85928396
   0.06418597  0.31991863  0.35545082
   0.92709149  0.83694991  0.15547265
Direct configuration=    37
   0.73189840  0.54431736  0.28887096
   0.27153532  0.04975479  0.20863100
   0.28246101  0.45327159  0.71387894
   0.71667144  0.95363871  0.78603542
   0.53585580  0.24208793  0.02385339
   0.46446260  0.75207881  0.48121607
   0.44658319  0.74296759  0.97684722
   0.53913948  0.24686501  0.52714942
   0.93968800  0.66808592  0.64858311
   0.05189852  0.17531581  0.85925961
   0.06598160  0.32232074  0.35551408
   0.92776397  0.83931888  0.15639939
Direct configuration=    38
   0.73209388  0.54401834  0.28905897
   0.27143850  0.04987190  0.20887093
   0.28206887  0.45318795  0.71362739
   0.71658843  0.95367409  0.78569118
   0.53659930  0.24050340  0.02385979
   0.46504784  0.75128024  0.48172475
   0.44558991  0.74323226  0.97658528
   0.54007421  0.24767371  0.52686824
   0.94015419  0.66723082  0.64978406
   0.05216930  0.17540276  0.85907018
   0.06761169  0.32492529  0.35560968
   0.92832661  0.84135982  0.15719277
Direct configuration=    39
   0.73228396  0.54372709  0.28926688
   0.27134017  0.04995507  0.20911829
   0.28164207  0.45310881  0.71337732
   0.71652940  0.95370675  0.78536753
   0.53762233  0.23942242  0.02384269
   0.46540373  0.75065143  0.48204953
   0.44475509  0.74325211  0.97631161
   0.54126251  0.24821604  0.52652181
   0.94048081  0.66652450  0.65100069
   0.05264158  0.17563430  0.85871382
   0.06907817  0.32771557  0.35570762
   0.92872504  0.84303171  0.15786835
Direct configuration=    40
   0.73246918  0.54344343  0.28949523
   0.27124166  0.05000615  0.20937347
   0.28118153  0.45303430  0.71312977
   0.71649431  0.95373742  0.78506427
   0.53892071  0.23886274  0.02380354
   0.46553306  0.75022023  0.48218179
   0.44410325  0.74302391  0.97604049
   0.54270204  0.24847509  0.52610905
   0.94064177  0.66598388  0.65222537
   0.05331281  0.17599317  0.85819430
   0.07039623  0.33066264  0.35577315
   0.92892115  0.84431010  0.15843902
Direct configuration=    41
   0.73264911  0.54316694  0.28974470
   0.27114435  0.05002712  0.20963658
   0.28068810  0.45296484  0.71288543
   0.71648332  0.95376672  0.78478115
   0.54048314  0.23883015  0.02374735
   0.46543696  0.75001264  0.48211453
   0.44365417  0.74255503  0.97578466
   0.54438095  0.24844028  0.52562899
   0.94061439  0.66562527  0.65345345
   0.05418006  0.17645437  0.85752088
   0.07159304  0.33372579  0.35576797
   0.92889381  0.84518671  0.15891479
Direct configuration=    42
   0.73282234  0.54289714  0.29001605
   0.27104961  0.05001983  0.20990740
   0.28016267  0.45290127  0.71264466
   0.71649677  0.95379512  0.78451802
   0.54229117  0.23931956  0.02368191
   0.46511454  0.75005249  0.48184235
   0.44342306  0.74186286  0.97555519
   0.54627795  0.24810752  0.52508103
   0.94038079  0.66546282  0.65468267
   0.05523976  0.17698504  0.85670803
   0.07270596  0.33685437  0.35565152
   0.92863919  0.84566895  0.15930295
Direct configuration=    43
   0.73298645  0.54263360  0.29030999
   0.27095893  0.04998586  0.21018533
   0.27960624  0.45284492  0.71240758
   0.71653506  0.95382293  0.78427494
   0.54431953  0.24031568  0.02361656
   0.46456295  0.75036070  0.48136167
   0.44342063  0.74097424  0.97536104
   0.54836248  0.24747964  0.52446508
   0.93992949  0.66550660  0.65591220
   0.05648723  0.17754463  0.85577494
   0.07378067  0.33999007  0.35538282
   0.92817049  0.84577939  0.15960843
Direct configuration=    44
   0.73313805  0.54237598  0.29062705
   0.27087390  0.04992636  0.21046937
   0.27902006  0.45279775  0.71217411
   0.71659861  0.95385035  0.78405229
   0.54653645  0.24179322  0.02356071
   0.46377793  0.75095407  0.48067139
   0.44365287  0.73992488  0.97520856
   0.55059529  0.24656735  0.52378165
   0.93925718  0.66576024  0.65714127
   0.05791584  0.17808540  0.85474486
   0.07486830  0.34306889  0.35492281
   0.92751714  0.84555493  0.15983401
Direct configuration=    45
   0.73327283  0.54212417  0.29096756
   0.27079634  0.04984197  0.21075823
   0.27840570  0.45276241  0.71194404
   0.71668772  0.95387749  0.78385087
   0.54890429  0.24371679  0.02352194
   0.46275483  0.75184366  0.47977364
   0.44412066  0.73875867  0.97510079
   0.55292962  0.24539042  0.52303208
   0.93837032  0.66621847  0.65836771
   0.05951644  0.17855353  0.85364405
   0.07602274  0.34602382  0.35423684
   0.92672333  0.84504556  0.15998090
Direct configuration=    46
   0.73338572  0.54187827  0.29133150
   0.27072830  0.04973283  0.21105026
   0.27776511  0.45274230  0.71171701
   0.71680240  0.95390450  0.78367196
   0.55138083  0.24604085  0.02350454
   0.46149025  0.75303269  0.47867495
   0.44481935  0.73752664  0.97503680
   0.55531311  0.24397867  0.52221892
   0.93728645  0.66686458  0.65958617
   0.06127648  0.17889047  0.85250061
   0.07729662  0.34878811  0.35329728
   0.92584571  0.84431256  0.16004942
Direct configuration=    47
   0.73347116  0.54163865  0.29171854
   0.27067208  0.04959865  0.21134355
   0.27710071  0.45274146  0.71149259
   0.71694224  0.95393166  0.78351738
   0.55392018  0.24870989  0.02350771
   0.45998392  0.75451418  0.47738740
   0.44573841  0.73628554  0.97501105
   0.55768964  0.24237294  0.52134627
   0.93603488  0.66766824  0.66078667
   0.06317996  0.17903506  0.85134266
   0.07873705  0.35129925  0.35208560
   0.92495056  0.84342605  0.16003977
Direct configuration=    48
   0.73352341  0.54140586  0.29212794
   0.27063024  0.04943872  0.21163595
   0.27641535  0.45276447  0.71127028
   0.71710637  0.95395945  0.78338954
   0.55647401  0.25165886  0.02352429
   0.45824093  0.75626872  0.47592997
   0.44686128  0.73509604  0.97501299
   0.56000171  0.24062568  0.52041994
   0.93465676  0.66858407  0.66195315
   0.06520736  0.17892623  0.85019629
   0.08038076  0.35350394  0.35059466
   0.92411015  0.84246181  0.15995299
Direct configuration=    49
   0.73353698  0.54118072  0.29255858
   0.27060559  0.04925206  0.21192497
   0.27571229  0.45281627  0.71104954
   0.71729336  0.95398880  0.78329141
   0.55899257  0.25481340  0.02354005
   0.45627424  0.75826203  0.47433024
   0.44816554  0.73402051  0.97502691
   0.56219337  0.23880051  0.51944772
   0.93320371  0.66955140  0.66306266
   0.06733619  0.17850656  0.84908326
   0.08224993  0.35536267  0.34883040
   0.92339826  0.84149695  0.15979191
Direct configuration=    50
   0.73350694  0.54096427  0.29300895
   0.27060106  0.04903754  0.21220778
   0.27499503  0.45290189  0.71082979
   0.71750130  0.95402112  0.78322645
   0.56142669  0.25809134  0.02353359
   0.45410686  0.76044333  0.47262556
   0.44962339  0.73312065  0.97503241
   0.56421326  0.23697107  0.51843953
   0.93173543  0.67049557  0.66408533
   0.06954198  0.17772588  0.84801833
   0.08434835  0.35685303  0.34681322
   0.92288514  0.84060511  0.15956226
Direct configuration=    51
   0.73342932  0.54075783  0.29347710
   0.27061969  0.04879399  0.21248106
   0.27426719  0.45302619  0.71061044
   0.71772788  0.95405850  0.78319853
   0.56372903  0.26140432  0.02347694
   0.45177366  0.76274527  0.47086379
   0.45120302  0.73245487  0.97500569
   0.56601844  0.23521781  0.51740766
   0.93031629  0.67133171  0.66498528
   0.07179984  0.17654497  0.84700746
   0.08665847  0.35797209  0.34457759
   0.92263240  0.83985126  0.15927320
Direct configuration=    52
   0.73330117  0.54056299  0.29396070
   0.27066446  0.04852028  0.21274086
   0.27353223  0.45319355  0.71039094
   0.71797066  0.95410361  0.78321179
   0.56585528  0.26466043  0.02333634
   0.44932138  0.76508423  0.46910371
   0.45286982  0.73207612  0.97492041
   0.56757622  0.23362593  0.51636761
   0.92901156  0.67196789  0.66572233
   0.07408660  0.17493751  0.84604602
   0.08914148  0.35873832  0.34217085
   0.92268953  0.83928868  0.15893788
Direct configuration=    53
   0.73312065  0.54038155  0.29445703
   0.27073832  0.04821531  0.21298249
   0.27279327  0.45340762  0.71017076
   0.71822731  0.95415965  0.78327049
   0.56776670  0.26776917  0.02307457
   0.44680898  0.76736260  0.46741452
   0.45458844  0.73202939  0.97474996
   0.56886577  0.23228105  0.51533847
   0.92788205  0.67231141  0.66625460
   0.07638200  0.17289217  0.84511776
   0.09173835  0.35919096  0.33965115
   0.92308993  0.83895515  0.15857313
Direct configuration=    54
   0.73288679  0.54021551  0.29496299
   0.27084419  0.04787801  0.21320041
   0.27205293  0.45367121  0.70994932
   0.71849606  0.95423020  0.78337873
   0.56943075  0.27064538  0.02265343
   0.44430719  0.76947145  0.46587501
   0.45632462  0.73234992  0.97446986
   0.56987869  0.23126463  0.51434291
   0.92697911  0.67227541  0.66654167
   0.07866951  0.17041336  0.84419487
   0.09437267  0.35938841  0.33708513
   0.92384842  0.83887096  0.15819873
Direct configuration=    55
   0.73259929  0.54006690  0.29547507
   0.27098510  0.04750731  0.21338816
   0.27131330  0.45398620  0.70972603
   0.71877599  0.95431904  0.78354028
   0.57082158  0.27321144  0.02203649
   0.44189669  0.77129536  0.46457064
   0.45804676  0.73306183  0.97406032
   0.57061830  0.23064959  0.51340692
   0.92634012  0.67178546  0.66654805
   0.08093664  0.16752068  0.84323965
   0.09695424  0.35940461  0.33454519
   0.92496010  0.83903867  0.15783611
Direct configuration=    56
   0.73225818  0.53993771  0.29598940
   0.27116433  0.04710218  0.21353853
   0.27057605  0.45435363  0.70950010
   0.71906738  0.95442994  0.78375837
   0.57192048  0.27539999  0.02119217
   0.43966580  0.77271836  0.46358945
   0.45972677  0.73417704  0.97350883
   0.57109790  0.23049629  0.51255921
   0.92598470  0.67078578  0.66624644
   0.08317418  0.16424704  0.84220696
   0.09938407  0.35932388  0.33210581
   0.92640027  0.83944409  0.15750685
Direct configuration=    57
   0.73186351  0.53982964  0.29650170
   0.27138558  0.04666162  0.21364379
   0.26984271  0.45477367  0.70927060
   0.71937178  0.95456653  0.78403549
   0.57271556  0.27715579  0.02009689
   0.43770714  0.77363165  0.46301659
   0.46134016  0.73569414  0.97281293
   0.57133818  0.23084864  0.51183020
   0.92591230  0.66924424  0.66562063
   0.08537581  0.16063576  0.84104758
   0.10155941  0.35923460  0.32983927
   0.92812523  0.84005833  0.15723104
Direct configuration=    58
   0.73141525  0.53974396  0.29700723
   0.27165307  0.04618483  0.21369617
   0.26911517  0.45524565  0.70903639
   0.71969202  0.95473232  0.78437322
   0.57320151  0.27843753  0.01873796
   0.43611389  0.77394217  0.46292792
   0.46286532  0.73759699  0.97198292
   0.57136425  0.23173070  0.51125047
   0.92610090  0.66715630  0.66466797
   0.08753607  0.15673771  0.83971224
   0.10337850  0.35922148  0.32781120
   0.93007375  0.84084031  0.15702582
Direct configuration=    59
   0.73091330  0.53968127  0.29750066
   0.27197156  0.04567145  0.21368841
   0.26839625  0.45576777  0.70879612
   0.72003193  0.95493063  0.78477195
   0.57337922  0.27921903  0.01711688
   0.43497508  0.77358228  0.46338205
   0.46428203  0.73985280  0.97104454
   0.57120249  0.23314314  0.51084841
   0.92650714  0.66454779  0.66340149
   0.08964827  0.15261131  0.83815669
   0.10474575  0.35935679  0.32607644
   0.93216879  0.84173957  0.15690433
Direct configuration=    60
   0.73035782  0.53964130  0.29797591
   0.27234606  0.04512200  0.21361445
   0.26769048  0.45633680  0.70854831
   0.72039594  0.95516460  0.78523057
   0.57325575  0.27948991  0.01525253
   0.43436974  0.77251980  0.46441175
   0.46556926  0.74240979  0.97004136
   0.57087787  0.23505993  0.51064746
   0.92706707  0.66147695  0.66185176
   0.09170274  0.14832298  0.83634742
   0.10557792  0.35969125  0.32467511
   0.93432001  0.84269940  0.15687506
Direct configuration=    61
   0.72974967  0.53962281  0.29842615
   0.27278126  0.04453838  0.21347011
   0.26700465  0.45694762  0.70829157
   0.72078844  0.95543717  0.78574606
   0.57284483  0.27925672  0.01318393
   0.43436051  0.77076692  0.46601594
   0.46670347  0.74519551  0.96903556
   0.57041174  0.23742533  0.51066269
   0.92769813  0.65803515  0.66006800
   0.09368482  0.14394650  0.83426667
   0.10581090  0.36024605  0.32362919
   0.93642755  0.84365997  0.15694144
Direct configuration=    62
   0.72909106  0.53962351  0.29884376
   0.27328076  0.04392446  0.21325371
   0.26634821  0.45759273  0.70802485
   0.72121311  0.95575089  0.78631319
   0.57216721  0.27854409  0.01097149
   0.43498681  0.76838607  0.46815383